[Molden Format]
made by pyscf v[2.5.0]
[Atoms] (AU)
C   1   6    -6.20786373349935     1.81969288339813     0.49444684294050
C   2   6    -5.49959437850566    -0.88809569389763    -0.27452051547474
C   3   6    -4.32135013400576     3.71374649016606    -0.63487239195218
H   4   1    -6.18732241042362     1.98281404327821     2.59026650902720
H   5   1    -8.14608024001702     2.26232343574651    -0.17965626355189
C   6   6    -2.79700254807818    -1.51306592090807     0.57901208743347
H   7   1    -5.63361375592336    -1.07472504688369    -2.36376393461540
H   8   1    -6.84685572842348    -2.24516472245050     0.59388423210743
C   9   6    -1.62952974254163     3.09450213334141     0.25086114427805
H   10   1    -4.83289899845825     5.66144942187602    -0.04121492698082
H   11   1    -4.40631222098686     3.62341758096463    -2.73401797603459
C   12   6    -0.91271882542263     0.39425356331999    -0.53379094104874
H   13   1    -2.69431482996090    -1.44787036928778     2.67726950023293
H   14   1    -2.28974336194970    -3.45355009878645    -0.04359598190956
H   15   1    -1.52325154476990     3.27009548570537     2.34361945402780
H   16   1    -0.27436933738403     4.45933793630469    -0.59116302647459
H   17   1    -0.92636264810954     0.25246741149188    -2.63116018256526
H   18   1     1.02472289338014    -0.04952972197008     0.14184284361213
[GTO]
1 0
 s    6 1.00
             3047.5249  0.0018347001629433
             457.36951    0.01403730124668
             103.94869   0.068842606114048
             29.210155    0.23218442062076
              9.286663    0.46794134155879
              3.163927    0.36231203217765
 s    3 1.00
             7.8682724   -0.11933240861517
             1.8812885   -0.16085421161283
             0.5442493     1.1434564825515
 s    1 1.00
             0.1687144                   1
 p    3 1.00
             7.8682724   0.068999095584993
             1.8812885    0.31642397975315
             0.5442493    0.74430825237435
 p    1 1.00
             0.1687144                   1
 d    1 1.00
                   0.8                   1

2 0
 s    6 1.00
             3047.5249  0.0018347001629433
             457.36951    0.01403730124668
             103.94869   0.068842606114048
             29.210155    0.23218442062076
              9.286663    0.46794134155879
              3.163927    0.36231203217765
 s    3 1.00
             7.8682724   -0.11933240861517
             1.8812885   -0.16085421161283
             0.5442493     1.1434564825515
 s    1 1.00
             0.1687144                   1
 p    3 1.00
             7.8682724   0.068999095584993
             1.8812885    0.31642397975315
             0.5442493    0.74430825237435
 p    1 1.00
             0.1687144                   1
 d    1 1.00
                   0.8                   1

3 0
 s    6 1.00
             3047.5249  0.0018347001629433
             457.36951    0.01403730124668
             103.94869   0.068842606114048
             29.210155    0.23218442062076
              9.286663    0.46794134155879
              3.163927    0.36231203217765
 s    3 1.00
             7.8682724   -0.11933240861517
             1.8812885   -0.16085421161283
             0.5442493     1.1434564825515
 s    1 1.00
             0.1687144                   1
 p    3 1.00
             7.8682724   0.068999095584993
             1.8812885    0.31642397975315
             0.5442493    0.74430825237435
 p    1 1.00
             0.1687144                   1
 d    1 1.00
                   0.8                   1

4 0
 s    3 1.00
             18.731137    0.03349459952309
             2.8253937    0.23472694665786
             0.6401217    0.81375731841339
 s    1 1.00
             0.1612778                   1

5 0
 s    3 1.00
             18.731137    0.03349459952309
             2.8253937    0.23472694665786
             0.6401217    0.81375731841339
 s    1 1.00
             0.1612778                   1

6 0
 s    6 1.00
             3047.5249  0.0018347001629433
             457.36951    0.01403730124668
             103.94869   0.068842606114048
             29.210155    0.23218442062076
              9.286663    0.46794134155879
              3.163927    0.36231203217765
 s    3 1.00
             7.8682724   -0.11933240861517
             1.8812885   -0.16085421161283
             0.5442493     1.1434564825515
 s    1 1.00
             0.1687144                   1
 p    3 1.00
             7.8682724   0.068999095584993
             1.8812885    0.31642397975315
             0.5442493    0.74430825237435
 p    1 1.00
             0.1687144                   1
 d    1 1.00
                   0.8                   1

7 0
 s    3 1.00
             18.731137    0.03349459952309
             2.8253937    0.23472694665786
             0.6401217    0.81375731841339
 s    1 1.00
             0.1612778                   1

8 0
 s    3 1.00
             18.731137    0.03349459952309
             2.8253937    0.23472694665786
             0.6401217    0.81375731841339
 s    1 1.00
             0.1612778                   1

9 0
 s    6 1.00
             3047.5249  0.0018347001629433
             457.36951    0.01403730124668
             103.94869   0.068842606114048
             29.210155    0.23218442062076
              9.286663    0.46794134155879
              3.163927    0.36231203217765
 s    3 1.00
             7.8682724   -0.11933240861517
             1.8812885   -0.16085421161283
             0.5442493     1.1434564825515
 s    1 1.00
             0.1687144                   1
 p    3 1.00
             7.8682724   0.068999095584993
             1.8812885    0.31642397975315
             0.5442493    0.74430825237435
 p    1 1.00
             0.1687144                   1
 d    1 1.00
                   0.8                   1

10 0
 s    3 1.00
             18.731137    0.03349459952309
             2.8253937    0.23472694665786
             0.6401217    0.81375731841339
 s    1 1.00
             0.1612778                   1

11 0
 s    3 1.00
             18.731137    0.03349459952309
             2.8253937    0.23472694665786
             0.6401217    0.81375731841339
 s    1 1.00
             0.1612778                   1

12 0
 s    6 1.00
             3047.5249  0.0018347001629433
             457.36951    0.01403730124668
             103.94869   0.068842606114048
             29.210155    0.23218442062076
              9.286663    0.46794134155879
              3.163927    0.36231203217765
 s    3 1.00
             7.8682724   -0.11933240861517
             1.8812885   -0.16085421161283
             0.5442493     1.1434564825515
 s    1 1.00
             0.1687144                   1
 p    3 1.00
             7.8682724   0.068999095584993
             1.8812885    0.31642397975315
             0.5442493    0.74430825237435
 p    1 1.00
             0.1687144                   1
 d    1 1.00
                   0.8                   1

13 0
 s    3 1.00
             18.731137    0.03349459952309
             2.8253937    0.23472694665786
             0.6401217    0.81375731841339
 s    1 1.00
             0.1612778                   1

14 0
 s    3 1.00
             18.731137    0.03349459952309
             2.8253937    0.23472694665786
             0.6401217    0.81375731841339
 s    1 1.00
             0.1612778                   1

15 0
 s    3 1.00
             18.731137    0.03349459952309
             2.8253937    0.23472694665786
             0.6401217    0.81375731841339
 s    1 1.00
             0.1612778                   1

16 0
 s    3 1.00
             18.731137    0.03349459952309
             2.8253937    0.23472694665786
             0.6401217    0.81375731841339
 s    1 1.00
             0.1612778                   1

17 0
 s    3 1.00
             18.731137    0.03349459952309
             2.8253937    0.23472694665786
             0.6401217    0.81375731841339
 s    1 1.00
             0.1612778                   1

18 0
 s    3 1.00
             18.731137    0.03349459952309
             2.8253937    0.23472694665786
             0.6401217    0.81375731841339
 s    1 1.00
             0.1612778                   1

[5d]
[7f]
[9g]

[MO]
 Sym= A
 Ene=    -11.21582226
 Spin= Alpha
 Occup=    2.00000
   1      0.37921209121913
   2    0.0094168809525416
   3    -0.0037447918247701
   4    -7.4987355288304e-06
   5    8.2724002273191e-06
   6    -2.293114831666e-05
   7    0.0005019443168661
   8    -0.00065419951102026
   9    0.00011206959443597
  10    8.8562575171554e-05
  11    0.00014036935812636
  12    -5.0549374846192e-05
  13    0.00017953594970421
  14    -3.6692923733368e-05
  15      0.51604502696854
  16     0.013061567676349
  17     -0.00614035067887
  18    3.8186075234469e-05
  19    4.111783300656e-05
  20    2.4065803439266e-05
  21    0.00054097712005256
  22    0.00011343686301246
  23    -0.00010248714506905
  24    0.00013854029767726
  25    -0.0001341750146112
  26    -9.7411461665593e-05
  27    -2.8877745915756e-05
  28    0.00017369372124465
  29      0.27953041296634
  30    0.0067915225168644
  31    -0.002306978132355
  32    -8.3298955476211e-06
  33    5.822212623681e-05
  34    9.8282627422042e-06
  35    -2.402070102401e-05
  36    -0.00071313216728551
  37    -7.8536325303007e-05
  38    4.5418101555565e-05
  39    -9.5560706654766e-06
  40    0.00013963411142357
  41    -0.00012573846314443
  42    -8.6875259877986e-05
  43    -0.00017139104009317
  44    0.00098454780729439
  45    -0.00010679901952247
  46     0.001417670879226
  47      0.52096902572162
  48     0.013191692406378
  49    -0.0062175133405885
  50    -1.6013768648619e-05
  51     5.25987337855e-05
  52    -3.1308135498118e-05
  53    -0.00038548876630117
  54    0.00037582710677851
  55    6.313248330634e-05
  56    0.0001056903227171
  57    -4.5130375673209e-05
  58    0.00015907122666668
  59    -0.00018469518163188
  60    -7.544910711118e-05
  61    -0.00016080404274918
  62    0.0014839360842312
  63    -0.00010407135578968
  64    0.0017337359539131
  65      0.28466632847434
  66    0.0069280619361969
  67    -0.0023926344428636
  68    3.2619462119402e-05
  69    4.383451226044e-05
  70    -1.7733510694588e-05
  71    -0.00028758640345816
  72    -0.00063910976658805
  73    0.00017793255811851
  74    7.9464773407541e-05
  75    -9.0834075513019e-05
  76    -0.0001083540583911
  77    2.0597355583428e-05
  78    0.00013784433580175
  79    -9.8839692229838e-05
  80    0.0011771980636228
  81    -0.00015809845089486
  82    0.0006125986211363
  83      0.38931079041878
  84    0.0096845903659555
  85    -0.0039086374579761
  86    6.7318892403127e-06
  87    8.0821046095038e-06
  88    2.2556705716905e-05
  89    -0.00074757244898076
  90    -0.00034616617565169
  91    -3.5625902007197e-05
  92    8.1571130524493e-05
  93    0.00016607325174127
  94    2.0635414960103e-05
  95    0.00013542438062124
  96    -0.00010987491811742
  97    -0.00016104042608645
  98    0.0015021788373321
  99    -0.00010436421134819
 100    0.0017455822166743
 101    -0.00015800211371103
 102    0.00063148151688039
 103    -9.8820649791879e-05
 104    0.0011890897991581
 105    -0.00017152094504768
 106    0.0010217262476479
 107    -0.00010702836947177
 108    0.0014415218894709
 Sym= A
 Ene=    -11.21554852
 Spin= Alpha
 Occup=    2.00000
   1      -0.5434284659496
   2     -0.01442418679114
   3    0.0087361641039964
   4    -0.00025667734067347
   5    8.2493092080674e-05
   6    3.9092694556055e-05
   7    0.00059499645297507
   8    0.00034199066617247
   9    0.00010732734332117
  10    -0.00013129075012214
  11    -6.1742297030665e-05
  12    2.9004356212366e-05
  13    -0.0001097652650733
  14    9.3898570171752e-06
  15     -0.39321765714678
  16    -0.010492798732776
  17    0.0069683825926207
  18    -0.00014501467853088
  19    -0.00012139063856674
  20    -3.0570407403162e-06
  21    0.0016454734277648
  22    -0.00083652073816919
  23    -4.8686570857302e-05
  24    -8.2268378792907e-05
  25    -6.0569681939959e-05
  26    0.00010230879252345
  27    -0.00015551609839165
  28    -4.8425716704234e-05
  29     -0.16973416246386
  30    -0.0044777533959226
  31     0.002449372095601
  32    -6.3275061570592e-05
  33    7.3269483320097e-05
  34    -2.0049440657471e-05
  35    0.0018555429241331
  36    0.00046291973510321
  37    -0.00017483024224692
  38    -3.2322986770471e-05
  39    -0.00014165989566126
  40    -7.1286817122614e-05
  41    -4.548966833384e-05
  42    0.00014150604175505
  43    1.0927106782893e-05
  44    -0.0020134973868088
  45    1.7437959691772e-05
  46    -0.001253520662023
  47      0.26346235317076
  48    0.0070079372559945
  49    -0.0046487491579829
  50    -4.9119403320751e-05
  51    0.00010577740770576
  52    -1.5052224783146e-05
  53    0.0021365189302676
  54    0.00022890321481274
  55    -0.00010344948908599
  56    2.7912979896912e-05
  57    0.00015242414731224
  58    8.6225474520564e-05
  59    6.5787109346337e-05
  60    -0.00015553416275019
  61    -3.4397759923829e-05
  62    -0.0014376595452229
  63    -9.1498587055312e-06
  64    -0.00089459668239468
  65      0.32585621278287
  66    0.0085757956988928
  67    -0.0047610100176517
  68    -0.00013053284392604
  69    -9.0945620388659e-05
  70    -1.8014181446194e-05
  71    0.0012558163202251
  72    -0.0010834384193925
  73    -8.8021996153603e-05
  74    9.5759930520907e-05
  75    5.0217871362782e-05
  76    -0.00010319260965554
  77    0.00014051040076653
  78    8.0097227975088e-05
  79    1.2485834448276e-05
  80    -0.00040075416450295
  81    2.3636540535657e-05
  82    -0.00063860670364585
  83      0.58157559872276
  84      0.01541965123091
  85    -0.0094137267927689
  86    -0.00027185919080088
  87    4.8918957281688e-05
  88    4.1089271313812e-05
  89    0.00056127254894744
  90    2.7573246643461e-05
  91    0.00011011854787864
  92    0.00013079831932085
  93    7.8809778164328e-05
  94    -6.4355010029872e-06
  95    9.9309907642684e-05
  96    -3.5166228432462e-05
  97    2.1310306898589e-05
  98    0.00094043168210039
  99    4.5717236717599e-06
 100    0.00062283879363776
 101    -4.0330329394236e-05
 102    0.0011907299590521
 103    -2.4812645608225e-05
 104    0.00079646481211343
 105    -7.3420470517469e-06
 106    0.0021259908379902
 107    -1.8044724419975e-05
 108    0.0013653412042621
 Sym= A
 Ene=    -11.21553929
 Spin= Alpha
 Occup=    2.00000
   1      0.22299447851673
   2    0.0058087947961331
   3    -0.0035320014277197
   4    4.744535610312e-05
   5    -4.6690104563386e-05
   6    -4.4674501461354e-06
   7    0.00037641885689488
   8      0.00202586502851
   9    -0.00010698062244835
  10    1.4238438649209e-05
  11    0.00010001690226404
  12    0.00014064739115709
  13    -4.7063172831228e-05
  14    -0.00015774472872563
  15       -0.352186415441
  16    -0.0095098587874343
  17    0.0064154040929685
  18    -0.0001475320750252
  19    -0.0001557992605666
  20    -3.3682000797776e-06
  21    -0.0006296926119716
  22    0.0014434445152998
  23    -0.00018924639119497
  24    -7.6453293946622e-05
  25    8.1147070110891e-05
  26    -6.3090590946823e-05
  27    0.00013054669809676
  28    -2.5262827492596e-05
  29      0.58581038014623
  30     0.015353328556596
  31    -0.0086033833850851
  32    4.3738030756861e-05
  33    -0.00023431498612045
  34    5.5570863843484e-05
  35    0.00058531434666982
  36    0.00037491387210504
  37    8.0315301659352e-05
  38    0.00013582504164488
  39    -5.8281222048574e-05
  40    9.3582898176753e-05
  41    -0.00015456006106914
  42    -2.9811421600495e-05
  43    -8.0865196344065e-06
  44    0.00070357649450515
  45    -1.5002189937821e-05
  46    0.00063240530113084
  47     -0.45278000609125
  48    -0.012194948344116
  49    0.0082323456985692
  50    7.2713407396619e-05
  51    -0.00024799906481228
  52    3.5820247499837e-05
  53    0.0006468027428423
  54    0.0009715357518881
  55    3.5773930076867e-05
  56    -9.8664356351546e-05
  57    6.3851682808611e-05
  58    -1.3369437574003e-05
  59    7.7252910757385e-05
  60    -3.7506013784032e-05
  61    -4.3469568284596e-05
  62    -0.0013932789327574
  63    -1.8276893971504e-05
  64    -0.00069021885027089
  65      0.51710892957222
  66       0.0135488621988
  67    -0.0076597369499541
  68    -0.00011957694112919
  69    -0.00017336791205099
  70    -1.8869643345497e-05
  71    -0.00071207439403445
  72    0.00095455675766153
  73    -0.00013019055963439
  74    0.00012989596836785
  75    -0.00012326358446711
  76    -2.5356611447882e-06
  77    -0.00010032246635263
  78    0.00011057251661163
  79    -4.9678266589707e-05
  80    0.0015056952529162
  81    -6.757571650864e-05
  82    0.0020533638865715
  83     0.056592325940633
  84    0.0013947007268244
  85    -0.00084424067705971
  86    1.5796731396687e-05
  87    -3.1163902838521e-05
  88    -3.1454952212655e-06
  89    0.00050399079697679
  90    0.0020480089299219
  91    -0.000232713190582
  92    1.597120048228e-05
  93    -2.3326662880992e-05
  94    -0.00015680247168297
  95    0.0001063834860005
  96    0.00013855253240474
  97    -5.4613059722316e-05
  98    -0.001757186930511
  99    -2.1375207356639e-05
 100    -0.00092092164624602
 101    -5.4990886305806e-05
 102    0.0017981121104989
 103    -4.2606106732912e-05
 104    0.0013383385009421
 105    -5.452624408131e-06
 106    9.1969655675392e-05
 107    -9.89223986439e-06
 108    0.00024459441195686
 Sym= A
 Ene=    -11.21498481
 Spin= Alpha
 Occup=    2.00000
   1     -0.13070233137648
   2    -0.0034294150007428
   3    0.0028141064530027
   4    -7.9933745862464e-05
   5    -0.00021447738263014
   6    2.9269802836956e-05
   7    -0.00030706111974275
   8    -0.0019438370230289
   9    2.4066180968339e-05
  10    3.718136621465e-05
  11    -4.5628299752725e-05
  12    -0.00015861211744836
  13    9.5706609833697e-05
  14    0.00014146554769829
  15      0.54544742474554
  16     0.015037410292561
  17    -0.015330019094346
  18    3.4825872425693e-05
  19    0.00019991782470375
  20    -5.5179874601911e-05
  21    -0.0024012276969823
  22    -0.0013149953107829
  23    -0.00048957699483243
  24    -7.7475305894106e-05
  25    5.404831117419e-05
  26    -4.4595787822781e-05
  27    8.2036881795163e-05
  28    -0.00014354850859075
  29     -0.43079575506214
  30    -0.012087185521972
  31     0.012110138506854
  32    5.6630618412619e-05
  33    0.00022424637055259
  34    3.7208526760657e-05
  35    0.0017485115281526
  36    -0.0019575820766787
  37    0.00046625324217054
  38    2.6087547970027e-05
  39    -7.9401849599723e-05
  40    -5.9736123423162e-05
  41    -0.00014793329260775
  42    1.7741144570433e-05
  43    -3.2036916442265e-05
  44    -0.00038462127604813
  45    -3.0167997100188e-05
  46    -0.00039755069158691
  47     -0.54251519208055
  48     -0.01495576827492
  49      0.01526243636406
  50    -6.7531057061616e-05
  51    -0.00019592560644788
  52    -2.5672307678988e-05
  53    -0.0015113828581808
  54     0.002202911782917
  55    -0.00075206874389184
  56    8.5414175521261e-05
  57    -5.7011533380888e-05
  58    -1.6808056053832e-05
  59    -0.00016551467729149
  60    -1.7090380996135e-05
  61    0.00040657492397554
  62    0.0017884100404834
  63    0.00019938369894463
  64    0.0011658474622708
  65      0.42692034965197
  66     0.011987271173507
  67    -0.012065606280658
  68    -5.5065861502526e-05
  69    -0.00021485971084043
  70    7.0447139002162e-05
  71    0.0024877761291697
  72    0.00093299045070658
  73    0.00025200644674627
  74    -9.8640784215303e-06
  75    5.3078460398023e-05
  76    -7.5698402847958e-05
  77    0.0001085411821558
  78    -0.00011253180639428
  79    -0.00013078507294776
  80    -0.00069383617432012
  81    -0.00034890742459465
  82    -0.0015637839421342
  83       0.1274390757548
  84    0.0033428319277986
  85    -0.0027472568649616
  86    3.3687620945219e-05
  87    0.00022838093617972
  88    -3.8344835507483e-06
  89    0.00064532533568382
  90    0.0018248140872679
  91    -0.00025522573506585
  92    4.7948210400332e-06
  93    -6.0863380879774e-05
  94    -0.00015826333249539
  95    8.7125529960773e-05
  96    0.0001435421330335
  97    -0.00040518200862395
  98    -0.0017763274701851
  99    -0.00019875316856203
 100    -0.0011617774894032
 101    0.00034994637783682
 102    0.0015504678952287
 103    0.0001317773179874
 104    0.00068324622683432
 105    3.1176556256103e-05
 106    0.00037450119137759
 107    2.9969047774104e-05
 108    0.00038897311529011
 Sym= A
 Ene=    -11.21496541
 Spin= Alpha
 Occup=    2.00000
   1      0.57131101543057
   2     0.015880121384191
   3    -0.016072669600233
   4    0.00021264245756519
   5    -4.8172150456698e-05
   6    5.2040769629516e-05
   7    -0.0028404229015075
   8    0.00059527172243593
   9    0.0006869194022992
  10    -5.1192368687136e-05
  11    5.839534342615e-06
  12    -3.4107836928184e-05
  13    -0.00012552492205236
  14    8.4166220421743e-05
  15     -0.24286187404344
  16    -0.0067998926967739
  17     0.007315961377312
  18    -0.0002044223520676
  19    8.2180098678097e-05
  20    3.3797607899386e-05
  21    -0.00018522125864634
  22    0.0021664404943558
  23    0.0001848638912317
  24    3.9362800081917e-05
  25    9.3010515841053e-05
  26    -8.4648592732287e-05
  27    0.00015364023110215
  28    8.936162588983e-05
  29     -0.32145825446143
  30    -0.0088958602373193
  31    0.0086070174159133
  32    -0.00022753053506539
  33    7.1403846045025e-05
  34    2.9001841832913e-05
  35    -0.0013314440943852
  36    -0.0019065781888353
  37    0.00047415861303904
  38    4.2516035442717e-06
  39    0.00016176914832106
  40    3.9447299602864e-05
  41    2.7198535838884e-05
  42    -0.0001614439202722
  43    0.00044379070556496
  44    0.0019669640317209
  45    0.00019289843830311
  46    0.0010838963293205
  47     -0.25194070803952
  48    -0.0070365775617348
  49    0.0075237347310589
  50    0.00021809114200304
  51    -3.1162758231014e-05
  52    -3.6707646357683e-05
  53    0.0011725309283258
  54    0.0017757230445477
  55    -0.00048987943952964
  56    2.3971872246222e-05
  57    0.00014631291834784
  58    4.5260756155956e-05
  59    6.6375095050428e-06
  60    -0.00015690462224322
  61    -0.00021897176774206
  62    -0.00082447591952106
  63    -9.8183473328907e-05
  64    -0.0004472054783392
  65     -0.33112620878585
  66    -0.0091487556439512
  67    0.0088311379670573
  68    0.00023360403907505
  69    -4.9515662979333e-05
  70    -2.966876587571e-05
  71    0.0002266395045768
  72    -0.0023584275055031
  73    -0.00016646232833176
  74    2.3902213829539e-05
  75    0.00010703732773357
  76    -8.8882100380876e-05
  77    0.00016775328894193
  78    7.8244789057286e-05
  79    -9.3787329190829e-05
  80    -0.00061720326070786
  81    -0.00022288370590783
  82    -0.0011183685326386
  83      0.57548687191365
  84     0.015986181839079
  85    -0.016202779365771
  86    -0.00020966900631707
  87    5.1737141330895e-05
  88    -5.1855556146136e-05
  89    0.0027612556270381
  90    -0.00093435837207728
  91    -0.00067444720313705
  92    -5.7910180975189e-05
  93    1.2900626524717e-05
  94    -7.5355882717761e-06
  95    -0.0001412776565224
  96    6.3089150928429e-05
  97    -0.0002216480880509
  98    -0.00084891596150772
  99    -0.00010101988794723
 100    -0.00047751954172667
 101    -0.00022591041043649
 102    -0.0011447444002344
 103    -9.6896969533378e-05
 104    -0.00064864265774378
 105    0.00044631723953004
 106    0.0019728906085873
 107    0.00019615715255411
 108    0.0011037009407919
 Sym= A
 Ene=     -11.2146477
 Spin= Alpha
 Occup=    2.00000
   1     -0.40045100285293
   2      -0.0103916677475
   3    0.0097441260775347
   4    1.5170727722495e-05
   5    4.616498059086e-05
   6    4.451659365477e-05
   7    0.00062778746969918
   8    0.00019985892699088
   9    -0.00072826062042666
  10    0.00012360252218395
  11    8.2379873509097e-05
  12    3.5475149784452e-05
  13    3.0321298614358e-05
  14    -5.2850006192067e-05
  15      0.30204378421033
  16    0.0076577278141017
  17    -0.0069439138380317
  18    -6.2957099760831e-06
  19    -4.0124556445507e-05
  20    6.1542275310626e-05
  21    6.7696919764332e-05
  22    -0.00023462405906746
  23    -0.00056232066353028
  24    -0.000129506939384
  25    2.789624760201e-05
  26    4.4029194303127e-05
  27    -2.063429467022e-05
  28    -2.3862524492663e-05
  29      0.50362880005358
  30     0.013249333837919
  31    -0.012563980908859
  32    -7.7871260649507e-06
  33    -3.873121828905e-05
  34    4.2367454645301e-05
  35    -0.00049828513811836
  36    0.0009103232066358
  37    -0.00084256703381529
  38    -0.00013355042982083
  39    2.0531908240452e-05
  40    -6.8874238068613e-05
  41    8.1557720643398e-05
  42    2.4663045115781e-05
  43    -0.00013910227131804
  44    -0.00097262423711745
  45    -0.00015966238657336
  46    -0.0014271391596369
  47     -0.29842152262187
  48    -0.0075557813879527
  49    0.0068250937439766
  50    1.2113053498938e-05
  51    4.6491629082549e-05
  52    5.5796830842918e-05
  53    0.00013158466179355
  54    6.3937024323673e-05
  55    -0.00057772972429326
  56    0.00011248645476019
  57    6.110991681128e-06
  58    7.9844551170604e-05
  59    -1.8148679913718e-05
  60    -2.4559363392162e-05
  61    6.1841136777638e-05
  62    0.00063429792165745
  63    0.00012420213486074
  64    0.0012324825081677
  65     -0.49614381073514
  66    -0.013044652846505
  67      0.01238193368623
  68    8.4975672977925e-06
  69    4.3737400042137e-05
  70    3.6778007129668e-05
  71    -0.00090721414361965
  72    -0.00062598944871149
  73    -0.00072156100004224
  74    0.00014570992929136
  75    -5.4624319695318e-05
  76    -2.0815908185992e-05
  77    -2.3550541493655e-05
  78    7.2372705923113e-05
  79    0.00019261921962637
  80    0.0016294451918617
  81    0.00021377199306156
  82    0.0013304387306704
  83      0.39020713430836
  84     0.010106569181005
  85    -0.009452225272873
  86    -3.2406034097518e-06
  87    -4.1871578246301e-05
  88    5.200450781326e-05
  89    0.00038304666535901
  90    -0.00055200155391142
  91    -0.00065820535045842
  92    -0.00013129740254345
  93    -6.0156962103079e-05
  94    3.0071996115347e-05
  95    -6.7269625073237e-05
  96    -1.040267889064e-05
  97    -5.7982639084149e-05
  98    -0.00062262152774989
  99    -0.00012235362746031
 100    -0.0012255348164394
 101    -0.0002098131932259
 102    -0.0013042506143575
 103    -0.0001910492192112
 104    -0.0016135998283275
 105    0.00013095704363393
 106    0.00093702813233855
 107    0.00015595879645119
 108    0.0014074785669253
 Sym= A
 Ene=    -1.109482051
 Spin= Alpha
 Occup=    2.00000
   1    -0.086784523196961
   2      0.16343559863032
   3      0.12666756087329
   4     0.038798094598893
   5    -0.011105988005703
   6    -0.018070311203994
   7     0.006134422893795
   8    -0.0016906575115113
   9    -0.0021925761786685
  10    -0.0025579529932196
  11    -0.0023610891799953
  12    0.00012700805159013
  13    -0.0015610743877018
  14    0.00068882971327368
  15    -0.086586318863721
  16      0.16310277132505
  17      0.12637177194827
  18      0.02895856934334
  19     0.030131743985634
  20     0.013996409788171
  21    0.0044589322851072
  22    0.0046443619530866
  23    0.0015901977794684
  24    -0.0029566865749103
  25    0.0014828775588073
  26    0.0013393956239146
  27    -1.1277751719344e-05
  28    -0.0015318743022237
  29    -0.087032381214705
  30      0.16387662539883
  31       0.1270000399178
  32     0.011780658961393
  33    -0.037941252188306
  34     0.019791577228014
  35    0.0018400186792656
  36    -0.0060675459986734
  37    0.0024323786930234
  38    -0.0024029843387734
  39    0.00036266892378806
  40    -0.0024332531024159
  41     0.001612606331412
  42    0.00080374446620494
  43     0.043919946020734
  44    0.0049693454308975
  45     0.038594497656311
  46    0.0032029436351852
  47    -0.086567372611275
  48      0.16306728538665
  49      0.12634893856599
  50    -0.011624912196141
  51     0.037982896064293
  52    -0.019065566594344
  53    -0.0017668858779425
  54    0.0059329611196891
  55    -0.0023790303901065
  56    -0.0024682192197935
  57    0.00032499653730174
  58    -0.0023727844653652
  59    0.0015992828668905
  60    0.00082891920596035
  61     0.043829079973677
  62    0.0049537882595282
  63     0.038488836617023
  64    0.0031557818437515
  65    -0.087028238935577
  66      0.16387196327046
  67      0.12699042396634
  68      -0.0291134349335
  69    -0.030104562682274
  70    -0.014690885452532
  71    -0.0045872854460911
  72    -0.0047245464072643
  73    -0.001625405767143
  74    -0.0029083381790362
  75    0.0015448983416319
  76    0.0013881085723141
  77    1.7528614849328e-05
  78    -0.001519393355358
  79     0.038686605736158
  80    0.0032430537885021
  81     0.044021342681692
  82    0.0049884074285167
  83    -0.086761742472489
  84      0.16339593686886
  85      0.12663583729374
  86    -0.038731491155447
  87     0.011359764186251
  88     0.018015163799074
  89    -0.0061105358122743
  90    0.0017543318408225
  91    0.0021853858076963
  92    -0.002564352094373
  93    -0.0023469682738382
  94    0.00015135654344414
  95    -0.001588988428988
  96    0.00064220985022279
  97     0.043823192719751
  98     0.004952136662375
  99     0.038484750543705
 100    0.0031542180806445
 101     0.044017752232096
 102    0.0049882542366582
 103     0.038680880747016
 104    0.0032400680292326
 105     0.043910621182696
 106    0.0049676373526079
 107     0.038585203162229
 108    0.0031985063265688
 Sym= A
 Ene=   -0.9944082631
 Spin= Alpha
 Occup=    2.00000
   1     -0.01416628277758
   2     0.026619020977544
   3     0.024846328848825
   4    -0.020637288825783
   5    -0.085318629168136