[Molden Format]
made by pyscf v[2.5.0]
[Atoms] (AU)
C   1   6    -6.20786373349935     1.81969288339813     0.49444684294050
C   2   6    -5.49959437850566    -0.88809569389763    -0.27452051547474
C   3   6    -4.32135013400576     3.71374649016606    -0.63487239195218
H   4   1    -6.18732241042362     1.98281404327821     2.59026650902720
H   5   1    -8.14608024001702     2.26232343574651    -0.17965626355189
C   6   6    -2.79700254807818    -1.51306592090807     0.57901208743347
H   7   1    -5.63361375592336    -1.07472504688369    -2.36376393461540
H   8   1    -6.84685572842348    -2.24516472245050     0.59388423210743
C   9   6    -1.62952974254163     3.09450213334141     0.25086114427805
H   10   1    -4.83289899845825     5.66144942187602    -0.04121492698082
H   11   1    -4.40631222098686     3.62341758096463    -2.73401797603459
C   12   6    -0.91271882542263     0.39425356331999    -0.53379094104874
H   13   1    -2.69431482996090    -1.44787036928778     2.67726950023293
H   14   1    -2.28974336194970    -3.45355009878645    -0.04359598190956
H   15   1    -1.52325154476990     3.27009548570537     2.34361945402780
H   16   1    -0.27436933738403     4.45933793630469    -0.59116302647459
H   17   1    -0.92636264810954     0.25246741149188    -2.63116018256526
H   18   1     1.02472289338014    -0.04952972197008     0.14184284361213
[GTO]
1 0
 s    6 1.00
             3047.5249  0.0018347001629433
             457.36951    0.01403730124668
             103.94869   0.068842606114048
             29.210155    0.23218442062076
              9.286663    0.46794134155879
              3.163927    0.36231203217765
 s    3 1.00
             7.8682724   -0.11933240861517
             1.8812885   -0.16085421161283
             0.5442493     1.1434564825515
 s    1 1.00
             0.1687144                   1
 p    3 1.00
             7.8682724   0.068999095584993
             1.8812885    0.31642397975315
             0.5442493    0.74430825237435
 p    1 1.00
             0.1687144                   1
 d    1 1.00
                   0.8                   1

2 0
 s    6 1.00
             3047.5249  0.0018347001629433
             457.36951    0.01403730124668
             103.94869   0.068842606114048
             29.210155    0.23218442062076
              9.286663    0.46794134155879
              3.163927    0.36231203217765
 s    3 1.00
             7.8682724   -0.11933240861517
             1.8812885   -0.16085421161283
             0.5442493     1.1434564825515
 s    1 1.00
             0.1687144                   1
 p    3 1.00
             7.8682724   0.068999095584993
             1.8812885    0.31642397975315
             0.5442493    0.74430825237435
 p    1 1.00
             0.1687144                   1
 d    1 1.00
                   0.8                   1

3 0
 s    6 1.00
             3047.5249  0.0018347001629433
             457.36951    0.01403730124668
             103.94869   0.068842606114048
             29.210155    0.23218442062076
              9.286663    0.46794134155879
              3.163927    0.36231203217765
 s    3 1.00
             7.8682724   -0.11933240861517
             1.8812885   -0.16085421161283
             0.5442493     1.1434564825515
 s    1 1.00
             0.1687144                   1
 p    3 1.00
             7.8682724   0.068999095584993
             1.8812885    0.31642397975315
             0.5442493    0.74430825237435
 p    1 1.00
             0.1687144                   1
 d    1 1.00
                   0.8                   1

4 0
 s    3 1.00
             18.731137    0.03349459952309
             2.8253937    0.23472694665786
             0.6401217    0.81375731841339
 s    1 1.00
             0.1612778                   1

5 0
 s    3 1.00
             18.731137    0.03349459952309
             2.8253937    0.23472694665786
             0.6401217    0.81375731841339
 s    1 1.00
             0.1612778                   1

6 0
 s    6 1.00
             3047.5249  0.0018347001629433
             457.36951    0.01403730124668
             103.94869   0.068842606114048
             29.210155    0.23218442062076
              9.286663    0.46794134155879
              3.163927    0.36231203217765
 s    3 1.00
             7.8682724   -0.11933240861517
             1.8812885   -0.16085421161283
             0.5442493     1.1434564825515
 s    1 1.00
             0.1687144                   1
 p    3 1.00
             7.8682724   0.068999095584993
             1.8812885    0.31642397975315
             0.5442493    0.74430825237435
 p    1 1.00
             0.1687144                   1
 d    1 1.00
                   0.8                   1

7 0
 s    3 1.00
             18.731137    0.03349459952309
             2.8253937    0.23472694665786
             0.6401217    0.81375731841339
 s    1 1.00
             0.1612778                   1

8 0
 s    3 1.00
             18.731137    0.03349459952309
             2.8253937    0.23472694665786
             0.6401217    0.81375731841339
 s    1 1.00
             0.1612778                   1

9 0
 s    6 1.00
             3047.5249  0.0018347001629433
             457.36951    0.01403730124668
             103.94869   0.068842606114048
             29.210155    0.23218442062076
              9.286663    0.46794134155879
              3.163927    0.36231203217765
 s    3 1.00
             7.8682724   -0.11933240861517
             1.8812885   -0.16085421161283
             0.5442493     1.1434564825515
 s    1 1.00
             0.1687144                   1
 p    3 1.00
             7.8682724   0.068999095584993
             1.8812885    0.31642397975315
             0.5442493    0.74430825237435
 p    1 1.00
             0.1687144                   1
 d    1 1.00
                   0.8                   1

10 0
 s    3 1.00
             18.731137    0.03349459952309
             2.8253937    0.23472694665786
             0.6401217    0.81375731841339
 s    1 1.00
             0.1612778                   1

11 0
 s    3 1.00
             18.731137    0.03349459952309
             2.8253937    0.23472694665786
             0.6401217    0.81375731841339
 s    1 1.00
             0.1612778                   1

12 0
 s    6 1.00
             3047.5249  0.0018347001629433
             457.36951    0.01403730124668
             103.94869   0.068842606114048
             29.210155    0.23218442062076
              9.286663    0.46794134155879
              3.163927    0.36231203217765
 s    3 1.00
             7.8682724   -0.11933240861517
             1.8812885   -0.16085421161283
             0.5442493     1.1434564825515
 s    1 1.00
             0.1687144                   1
 p    3 1.00
             7.8682724   0.068999095584993
             1.8812885    0.31642397975315
             0.5442493    0.74430825237435
 p    1 1.00
             0.1687144                   1
 d    1 1.00
                   0.8                   1

13 0
 s    3 1.00
             18.731137    0.03349459952309
             2.8253937    0.23472694665786
             0.6401217    0.81375731841339
 s    1 1.00
             0.1612778                   1

14 0
 s    3 1.00
             18.731137    0.03349459952309
             2.8253937    0.23472694665786
             0.6401217    0.81375731841339
 s    1 1.00
             0.1612778                   1

15 0
 s    3 1.00
             18.731137    0.03349459952309
             2.8253937    0.23472694665786
             0.6401217    0.81375731841339
 s    1 1.00
             0.1612778                   1

16 0
 s    3 1.00
             18.731137    0.03349459952309
             2.8253937    0.23472694665786
             0.6401217    0.81375731841339
 s    1 1.00
             0.1612778                   1

17 0
 s    3 1.00
             18.731137    0.03349459952309
             2.8253937    0.23472694665786
             0.6401217    0.81375731841339
 s    1 1.00
             0.1612778                   1

18 0
 s    3 1.00
             18.731137    0.03349459952309
             2.8253937    0.23472694665786
             0.6401217    0.81375731841339
 s    1 1.00
             0.1612778                   1

[5d]
[7f]
[9g]

[MO]
 Sym= A
 Ene=    -11.21582226
 Spin= Alpha
 Occup=    2.00000
   1      0.37921209132834
   2     0.009416880959641
   3    -0.003744791838874
   4    -7.4987374673883e-06
   5    8.272400893454e-06
   6    -2.2931147804946e-05
   7    0.00050194431314979
   8    -0.00065419951582481
   9    0.00011206959509663
  10    8.8562575090146e-05
  11    0.00014036935789712
  12    -5.0549375196253e-05
  13    0.00017953594965838
  14    -3.6692923289539e-05
  15       0.5160450273604
  16     0.013061567690376
  17    -0.0061403506832325
  18    3.8186073247136e-05
  19    4.1117831286164e-05
  20    2.4065803235467e-05
  21    0.00054097712434541
  22    0.00011343686363307
  23    -0.00010248714388377
  24    0.00013854029808309
  25    -0.00013417501477846
  26    -9.7411461617592e-05
  27    -2.8877746103837e-05
  28    0.00017369372161315
  29      0.27953041096185
  30    0.0067915224661738
  31    -0.0023069781012045
  32    -8.3298964731247e-06
  33    5.8222128390449e-05
  34    9.8282622153447e-06
  35    -2.4020704748913e-05
  36    -0.00071313217080734
  37    -7.8536324172375e-05
  38    4.5418101219105e-05
  39    -9.5560702786615e-06
  40    0.00013963411122637
  41    -0.00012573846267396
  42    -8.6875260012984e-05
  43    -0.00017139103940459
  44    0.00098454780829732
  45    -0.0001067990195058
  46    0.0014176708801527
  47      0.52096902690747
  48     0.013191692441971
  49    -0.006217513363158
  50    -1.6013767724194e-05
  51    5.2598731663347e-05
  52    -3.1308134984735e-05
  53    -0.00038548876627158
  54    0.00037582710770542
  55    6.3132482313998e-05
  56    0.00010569032311042
  57    -4.5130375586847e-05
  58    0.00015907122686757
  59    -0.00018469518187629
  60    -7.5449107336477e-05
  61    -0.00016080404313386
  62     0.001483936086718
  63    -0.00010407135630975
  64    0.0017337359566227
  65      0.28466632644246
  66    0.0069280618842739
  67    -0.0023926344068891
  68    3.2619463906494e-05
  69    4.3834513867251e-05
  70    -1.7733510508557e-05
  71    -0.0002875864021458
  72    -0.00063910977377599
  73    0.00017793255735618
  74    7.9464773152417e-05
  75    -9.0834075035103e-05
  76    -0.00010835405849204
  77    2.0597356072328e-05
  78    0.0001378443357036
  79    -9.8839692445298e-05
  80    0.0011771980594157
  81    -0.00015809845079122
  82    0.0006125986146073
  83      0.38931079112874
  84    0.0096845903890844
  85    -0.0039086374814163
  86    6.731890952228e-06
  87    8.0821040725113e-06
  88    2.255670523159e-05
  89    -0.00074757244799121
  90    -0.00034616618336379
  91    -3.5625901532838e-05
  92    8.1571130501779e-05
  93    0.00016607325188815
  94    2.063541543035e-05
  95    0.00013542438020781
  96    -0.00010987491848476
  97    -0.00016104042614263
  98    0.0015021788425673
  99    -0.00010436421171866
 100    0.0017455822211602
 101    -0.00015800211391331
 102    0.00063148151028533
 103    -9.8820650133917e-05
 104    0.0011890897951552
 105    -0.00017152094439605
 106    0.0010217262509229
 107    -0.00010702836949776
 108    0.0014415218917928
 Sym= A
 Ene=    -11.21554852
 Spin= Alpha
 Occup=    2.00000
   1     -0.54342847852924
   2    -0.014424187121954
   3    0.0087361643079778
   4    -0.00025667733984339
   5    8.2493094033862e-05
   6    3.9092694347178e-05
   7    0.00059499642889748
   8    0.00034199055828884
   9    0.00010732734719358
  10    -0.00013129075087085
  11    -6.174230251273e-05
  12    2.9004348653397e-05
  13    -0.00010976526274802
  14    9.3898656427971e-06
  15     -0.39321763797386
  16    -0.010492798218787
  17    0.0069683822483625
  18    -0.00014501466873908
  19    -0.00012139062858308
  20    -3.0570402287461e-06
  21    0.0016454734629814
  22    -0.0008365208180197
  23    -4.8686559991096e-05
  24    -8.2268374872566e-05
  25    -6.0569686174121e-05
  26    0.00010230879607248
  27    -0.0001555161054006
  28    -4.8425715374449e-05
  29     -0.16973419364054
  30    -0.0044777542136146
  31    0.0024493725433887
  32    -6.3275063642918e-05
  33    7.3269494999917e-05
  34    -2.0049443469283e-05
  35    0.0018555428900382
  36    0.00046291971811213
  37    -0.0001748302477832
  38    -3.232299448433e-05
  39    -0.00014165989218127
  40    -7.1286822323011e-05
  41    -4.5489659459572e-05
  42    0.00014150604326469
  43    1.0927107596579e-05
  44    -0.0020134974261675
  45    1.7437960584754e-05
  46    -0.0012535207011843
  47      0.26346237769217
  48    0.0070079379193805
  49    -0.0046487496066815
  50    -4.9119406473367e-05
  51    0.00010577742000617
  52    -1.5052226333633e-05
  53    0.0021365188974036
  54    0.00022890316256873
  55    -0.00010344949136784
  56    2.7912985485909e-05
  57    0.00015242414380816
  58    8.6225475408392e-05
  59    6.5787105057706e-05
  60    -0.00015553416067047
  61    -3.439775758384e-05
  62    -0.0014376594700774
  63    -9.1498575348465e-06
  64    -0.00089459664590384
  65      0.32585618313977
  66    0.0085757949236832
  67    -0.0047610095669079
  68    -0.00013053283568898
  69    -9.094560935854e-05
  70    -1.8014180282345e-05
  71    0.0012558163553158
  72    -0.0010834384763129
  73    -8.8021989619392e-05
  74    9.5759923697792e-05
  75    5.0217877937459e-05
  76    -0.00010319260950068
  77    0.00014051040607377
  78    8.0097222215413e-05
  79    1.2485837608895e-05
  80    -0.00040075424530135
  81    2.3636544884386e-05
  82    -0.00063860681352537
  83       0.5815755963313
  84     0.015419651177423
  85    -0.0094137267697165
  86    -0.00027185918833396
  87    4.8918957864006e-05
  88    4.1089270970327e-05
  89    0.00056127251935104
  90    2.7573132766384e-05
  91    0.0001101185584246
  92    0.00013079831830592
  93    7.8809779508097e-05
  94    -6.4354922509551e-06
  95    9.9309901733129e-05
  96    -3.5166236183811e-05
  97    2.1310309893256e-05
  98    0.00094043177822753
  99    4.571724665972e-06
 100    0.00062283884369474
 101    -4.0330327242395e-05
 102    0.0011907298567702
 103    -2.4812643824604e-05
 104    0.00079646473684087
 105    -7.3420466772592e-06
 106    0.0021259908351392
 107    -1.8044723764764e-05
 108    0.0013653411959055
 Sym= A
 Ene=    -11.21553928
 Spin= Alpha
 Occup=    2.00000
   1      0.22299445106552
   2    0.0058087940689359
   3    -0.003532000996461
   4    4.744534125565e-05
   5    -4.6690099619396e-05
   6    -4.4674477052736e-06
   7    0.00037641888574379
   8    0.0020258650471292
   9    -0.00010698061482316
  10    1.4238431682417e-05
  11    0.00010001689929654
  12    0.00014064739238241
  13    -4.7063178442812e-05
  14    -0.00015774472798818
  15     -0.35218643593609
  16    -0.0095098593394023
  17    0.0064154044726734
  18    -0.00014753208187141
  19    -0.00015579926516984
  20    -3.3681999864702e-06
  21    -0.00062969252334788
  22    0.0014434444732787
  23    -0.00018924639266861
  24    -7.645329808674e-05
  25    8.1147066651966e-05
  26    -6.3090585700396e-05
  27    0.00013054668971478
  28    -2.5262829606731e-05
  29      0.58581037086254
  30     0.015353328313049
  31    -0.0086033832400268
  32    4.3738025831838e-05
  33    -0.00023431497831788
  34    5.5570862132286e-05
  35    0.00058531444679706
  36    0.00037491388753271
  37    8.0315292273259e-05
  38    0.00013582504010457
  39    -5.8281229459988e-05
  40    9.3582894876574e-05
  41    -0.00015456006402552
  42    -2.9811414585239e-05
  43    -8.0865185896716e-06
  44    0.00070357639156049
  45    -1.5002188992985e-05
  46    0.00063240523968551
  47     -0.45277999086511
  48    -0.012194947944944
  49    0.0082323454496182
  50    7.2713404446378e-05
  51    -0.00024799905624218
  52    3.5820245969422e-05
  53    0.00064680286239164
  54    0.0009715357670991
  55    3.5773922212164e-05
  56    -9.8664354529079e-05
  57    6.3851691319713e-05
  58    -1.3369432436426e-05
  59    7.7252913924314e-05
  60    -3.750602273053e-05
  61    -4.3469570770358e-05
  62    -0.0013932790088707
  63    -1.8276894857545e-05
  64    -0.0006902188969202
  65       0.5171089475399
  66     0.013548862672873
  67    -0.0076597372024072
  68    -0.00011957694553829
  69    -0.00017336791470549
  70    -1.8869644194746e-05
  71    -0.00071207432758308
  72    0.00095455668961429
  73    -0.00013019056343485
  74    0.00012989597402134
  75    -0.00012326358175566
  76    -2.535667440035e-06
  77    -0.00010032245810381
  78    0.00011057252171452
  79    -4.9678266673433e-05
  80    0.0015056952357021
  81    -6.7575716520905e-05
  82    0.0020533638508846
  83     0.056592360278766
  84    0.0013947016375506
  85    -0.00084424124246097
  86    1.5796716393877e-05
  87    -3.1163899844779e-05
  88    -3.1454931251832e-06
  89    0.00050399083228934
  90    0.0020480089297204
  91    -0.00023271318602519
  92    1.5971207754814e-05
  93    -2.3326658024945e-05
  94    -0.00015680247190225
  95    0.00010638349144187
  96    0.00013855253017457
  97    -5.4613059276187e-05
  98    -0.0017571868771778
  99    -2.1375207556087e-05
 100    -0.00092092161088658
 101    -5.4990889675196e-05
 102    0.0017981121754753
 103    -4.2606108816644e-05
 104    0.0013383385489818
 105    -5.4526242280133e-06
 106    9.1969779883645e-05
 107    -9.8922407624656e-06
 108    0.00024459449364665
 Sym= A
 Ene=    -11.21498481
 Spin= Alpha
 Occup=    2.00000
   1     -0.13070232680136
   2    -0.0034294148712854
   3    0.0028141063163506
   4    -7.9933742812989e-05
   5    -0.00021447738337947
   6    2.9269803489964e-05
   7    -0.00030706114994992
   8    -0.001943837016442
   9    2.4066185864435e-05
  10    3.7181366001372e-05
  11    -4.5628299373768e-05
  12    -0.00015861211762776
  13    9.5706608308647e-05
  14    0.0001414655482159
  15      0.54544742319312
  16     0.015037410249728
  17    -0.015330019042855
  18    3.4825867496106e-05
  19    0.00019991782303572
  20    -5.5179874414884e-05
  21    -0.0024012276957369
  22    -0.0013149952856209
  23    -0.00048957699538491
  24    -7.7475305639417e-05
  25    5.4048312072078e-05
  26    -4.4595788689664e-05
  27    8.2036883177978e-05
  28    -0.00014354850738514
  29     -0.43079575677252
  30    -0.012087185575422
  31     0.012110138558715
  32    5.6630616582124e-05
  33    0.00022424636885262
  34    3.7208527934282e-05
  35    0.0017485115117868
  36    -0.0019575820922164
  37    0.00046625324380453
  38    2.6087547227218e-05
  39    -7.9401847673553e-05
  40    -5.9736123413824e-05
  41    -0.00014793329170705
  42    1.7741142864005e-05
  43    -3.2036911950545e-05
  44    -0.00038462125894061
  45    -3.0167995525438e-05
  46    -0.0003975506862195
  47     -0.54251519577006
  48    -0.014955768379686
  49     0.015262436477182
  50    -6.7531055613358e-05
  51    -0.00019592560327984
  52    -2.5672308778237e-05
  53    -0.0015113828424651
  54    0.0022029118011655
  55    -0.00075206875194413
  56    8.5414176055479e-05
  57    -5.7011531523551e-05
  58    -1.6808055308561e-05
  59    -0.0001655146770051
  60    -1.709038302917e-05
  61    0.00040657492149942
  62    0.0017884100345208
  63    0.00019938369808603
  64    0.0011658474645364
  65      0.42692034398338
  66     0.011987271022363
  67    -0.012065606132754
  68    -5.5065856878924e-05
  69    -0.00021485970942927
  70    7.0447139159039e-05
  71    0.0024877761275493
  72    0.00093299041757928
  73    0.00025200644206284
  74    -9.8640772385395e-06
  75    5.3078461288412e-05
  76    -7.5698404136885e-05
  77    0.0001085411839391
  78    -0.00011253180489612
  79    -0.00013078507306655
  80    -0.0006938361764781
  81    -0.00034890742609887
  82    -0.0015637839508929
  83      0.12743908458325
  84    0.0033428321700154
  85    -0.0027472571008696
  86    3.3687619162723e-05
  87    0.00022838093667499
  88    -3.8344840762348e-06
  89    0.00064532536884966
  90    0.0018248140746213
  91    -0.00025522574569433
  92    4.7948199959142e-06
  93    -6.0863380753422e-05
  94    -0.00015826333234314
  95    8.7125528041009e-05
  96    0.00014354213333267
  97    -0.00040518201131098
  98    -0.0017763274820947
  99    -0.00019875317005898
 100    -0.0011617775008943
 101    0.00034994637409263
 102    0.0015504678781427
 103    0.00013177731585909
 104    0.0006832462150513
 105    3.1176561855989e-05
 106    0.00037450122010183
 107    2.9969050590536e-05
 108    0.0003889731359393
 Sym= A
 Ene=    -11.21496541
 Spin= Alpha
 Occup=    2.00000
   1      0.57131101612232
   2     0.015880121407576
   3    -0.016072669627649
   4    0.00021264245508531
   5    -4.8172147012935e-05
   6    5.204077012898e-05
   7    -0.0028404228968934
   8    0.00059527174014718
   9    0.00068691940206832
  10    -5.1192368918876e-05
  11    5.8395347185476e-06
  12    -3.4107835350628e-05
  13    -0.00012552492299472
  14    8.4166219060708e-05
  15     -0.24286188005921
  16    -0.0067998928634807
  17    0.0073159615465312
  18    -0.00020442235121067
  19    8.2180097972088e-05
  20    3.3797608724898e-05
  21    -0.00018522123244946
  22    0.0021664405060363
  23      0.00018486389747
  24    3.9362800827758e-05
  25    9.3010515280259e-05
  26    -8.4648591889642e-05
  27    0.00015364022969549
  28    8.9361627246928e-05
  29     -0.32145825113093
  30    -0.008895860142513
  31    0.0086070173003793
  32    -0.00022753053544428
  33    7.1403841924453e-05
  34    2.9001841801591e-05
  35    -0.0013314441178981
  36    -0.0019065781648724
  37    0.0004741586077152
  38    4.251602746142e-06
  39    0.00016176914936703
  40    3.9447299740333e-05
  41    2.7198538084688e-05
  42    -0.00016144392003115
  43    0.00044379070598926
  44     0.001966964035164
  45    0.00019289843859983
  46    0.0010838963332417
  47     -0.25194070162823
  48    -0.0070365773857952
  49    0.0075237345500012
  50    0.00021809114242635
  51    -3.1162753990721e-05
  52    -3.6707646522425e-05
  53    0.0011725309448753
  54    0.0017757230153478
  55    -0.00048987943095625
  56    2.3971871200674e-05
  57    0.00014631291878816
  58    4.5260755970203e-05
  59    6.6375114423538e-06
  60    -0.00015690462149588
  61    -0.00021897177200759
  62    -0.00082447593890847
  63    -9.8183475332032e-05
  64    -0.00044720549309772
  65     -0.33112621543569
  66    -0.0091487558291708
  67    0.0088311381319686
  68    0.00023360403870706
  69    -4.9515661791117e-05
  70    -2.966876687707e-05
  71    0.00022663947918571
  72    -0.0023584275163671
  73    -0.0001664623314089
  74    2.3902213319239e-05
  75    0.00010703732754629
  76    -8.8882099188527e-05
  77    0.00016775328753732
  78    7.8244789714836e-05
  79    -9.3787327309778e-05
  80    -0.00061720325887704
  81    -0.00022288370139963
  82    -0.0011183685204134
  83      0.57548686952733
  84     0.015986181781702
  85    -0.016202779327787
  86    -0.00020966900319228
  87    5.1737137786489e-05
  88    -5.1855556957502e-05
  89    0.0027612556163564
  90    -0.00093435839663056
  91    -0.0006744471997153
  92    -5.7910180946038e-05
  93    1.2900627246951e-05
  94    -7.5355861347582e-06
  95    -0.00014127765773114
  96    6.3089149020147e-05
  97    -0.00022164808297834
  98    -0.00084891594018848
  99    -0.00010101988537306
 100    -0.00047751952999403
 101    -0.00022591041398584
 102    -0.0011447444242218
 103    -9.68969706837e-05
 104    -0.00064864267208786
 105    0.00044631723924208
 106    0.0019728906028726
 107    0.00019615715217352
 108    0.0011037009354605
 Sym= A
 Ene=     -11.2146477
 Spin= Alpha
 Occup=    2.00000
   1     -0.40045100146866
   2    -0.010391667714254
   3    0.0097441260577878
   4    1.5170730974415e-05
   5    4.6164980735463e-05
   6    4.4516592843193e-05
   7    0.00062778746923814
   8    0.00019985893490142
   9    -0.00072826062096539
  10    0.00012360252195544
  11    8.2379873512393e-05
  12    3.5475150400983e-05
  13    3.0321298276861e-05
  14    -5.2850006681859e-05
  15      0.30204378256671
  16    0.0076577277707884
  17    -0.0069439137894973
  18    -6.295711260783e-06
  19    -4.0124558554044e-05
  20    6.1542275260396e-05
  21    6.7696927701009e-05
  22    -0.00023462405211722
  23    -0.0005623206616467
  24    -0.00012950693864966
  25    2.7896247322468e-05
  26    4.4029194199714e-05
  27    -2.0634294747877e-05
  28    -2.386252371947e-05
  29      0.50362880211822
  30     0.013249333899559
  31    -0.012563980969838
  32    -7.7871271304574e-06
  33    -3.873121627025e-05
  34    4.2367453628736e-05
  35    -0.00049828514814359
  36    0.00091032321271372
  37    -0.00084256703573075
  38    -0.00013355042957121
  39    2.0531908740812e-05
  40    -6.8874237390359e-05
  41    8.1557721132052e-05
  42    2.4663044747031e-05
  43    -0.00013910227125215
  44    -0.00097262423300815
  45    -0.0001596623863145
  46    -0.0014271391574752
  47     -0.29842152070665
  48    -0.0075557813373072
  49    0.0068250936904022
  50    1.2113053320695e-05
  51    4.649163162979e-05
  52    5.5796830443546e-05
  53    0.00013158466486518
  54    6.3937014115963e-05
  55    -0.00057772972116109
  56    0.00011248645414059
  57    6.1109916975342e-06
  58    7.9844550867948e-05
  59    -1.814867923705e-05
  60    -2.455936299142e-05
  61    6.1841135191356e-05
  62    0.00063429791693769
  63    0.00012420213390986
  64    0.0012324825057835
  65     -0.49614381308046
  66    -0.013044652915433
  67     0.012381933751077
  68    8.4975654567229e-06
  69    4.3737398799994e-05
  70    3.6778006387356e-05
  71    -0.00090721415515874
  72    -0.0006259894497991
  73    -0.0007215610013396
  74     0.000145709928791
  75    -5.4624319786423e-05
  76    -2.0815907520821e-05
  77    -2.3550542139021e-05
  78    7.2372706076948e-05
  79    0.00019261921996092
  80    0.0016294451972286
  81    0.00021377199451054
  82    0.0013304387390073
  83      0.39020713281769
  84     0.010106569144843
  85    -0.0094522252507681
  86    -3.2406006823394e-06
  87    -4.1871580004761e-05
  88    5.2004507165268e-05
  89    0.00038304666066955
  90    -0.000552001561739
  91    -0.00065820534973371
  92    -0.00013129740248845
  93     -6.0156961712e-05
  94    3.0071996766731e-05
  95    -6.7269625424957e-05
  96    -1.0402679454523e-05
  97    -5.7982637461577e-05
  98    -0.00062262152198919
  99    -0.00012235362649752
 100    -0.0012255348134697
 101    -0.00020981319463172
 102    -0.0013042506236786
 103    -0.00019104921952093
 104    -0.0016135998343814
 105    0.00013095704353639
 106    0.00093702812787951
 107    0.00015595879618452
 108    0.0014074785644485
 Sym= A
 Ene=     -1.10948205
 Spin= Alpha
 Occup=    2.00000
   1    -0.086784523197978
   2      0.16343559859529
   3       0.1266675609078
   4     0.038798094463284
   5     -0.01110598796816
   6    -0.018070311158193
   7    0.0061344228241919
   8    -0.0016906574929327
   9    -0.0021925761700061
  10    -0.0025579529846895
  11    -0.0023610891692125
  12    0.00012700804996821
  13    -0.001561074388271
  14    0.00068882971440063
  15    -0.086586318865233
  16      0.16310277129086
  17      0.12637177198356
  18     0.028958569243387
  19     0.030131743882218
  20     0.013996409756182
  21    0.0044589322346826
  22    0.0046443619015266
  23    0.0015901977777846
  24    -0.0029566865646405
  25    0.0014828775522677
  26    0.0013393956176016
  27    -1.1277751467383e-05
  28    -0.0015318743041974
  29    -0.087032381214704
  30      0.16387662536178
  31      0.12700003995029
  32      0.01178065892087
  33    -0.037941252054988
  34     0.019791577176577
  35    0.0018400186593109
  36    -0.006067545929334
  37    0.0024323786814528
  38    -0.0024029843309584
  39    0.0003626689213032
  40    -0.0024332530911851
  41    0.0016126063315546
  42    0.00080374446706599
  43     0.043919946061171
  44    0.0049693454769843
  45     0.038594497727335
  46     0.003202943658665
  47    -0.086567372612905
  48      0.16306728535272
  49      0.12634893860152
  50    -0.011624912156281
  51     0.037982895931438
  52    -0.019065566544746
  53    -0.001766885858049
  54    0.0059329610511989
  55    -0.0023790303794821
  56    -0.0024682192117674
  57    0.00032499653497766
  58    -0.0023727844543494
  59    0.0015992828672006
  60    0.00082891920683466
  61     0.043829080014385
  62    0.0049537883055648
  63     0.038488836687951
  64     0.003155781867255
  65    -0.087028238935568
  66      0.16387196323334
  67      0.12699042399893
  68    -0.029113434832642
  69    -0.030104562578624
  70    -0.014690885418851
  71    -0.0045872853951833
  72    -0.0047245463549641
  73    -0.0016254057646997
  74    -0.0029083381689218
  75    0.0015448983348201
  76    0.0013881085658521
  77    1.7528615012152e-05
  78    -0.0015193933572327
  79     0.038686605806883
  80    0.0032430538119108
  81     0.044021342721557
  82    0.0049884074746126
  83    -0.086761742473606
  84      0.16339593683407
  85      0.12663583732825
  86    -0.038731491020101
  87     0.011359764147822
  88     0.018015163753437
  89    -0.0061105357426075
  90    0.0017543318226104
  91     0.002185385799022
  92    -0.0025643520858087
  93    -0.0023469682631225
  94    0.00015135654165205
  95    -0.0015889884294794
  96    0.00064220985147482
  97     0.043823192760526
  98    0.0049521367084366
  99      0.03848475061469
 100    0.0031542181041462
 101      0.04401775227195
 102    0.0049882542827346
 103     0.038680880817709
 104    0.0032400680526099
 105     0.043910621223193
 106    0.0049676373987109
 107     0.038585203233283
 108    0.0031985063500887
 Sym= A
 Ene=   -0.9944082623
 Spin= Alpha
 Occup=    2.00000
   1    -0.014166282797671
   2     0.026619021008854
   3     0.024846328885337
   4    -0.020637288827121
   5    -0.085318629085201